 Gaussian 09, Revision C.01,
 Gaussian 09:  EM64L-G09RevC.01 23-Sep-2011

 ----------------------------------------------------------------------
 #HF/6-31G* SCF=tight Test Pop=MK iop(6/33=2) iop(6/42=6) opt # iop(6/5
 0=1)
 ----------------------------------------------------------------------

 99/9=1/99;
 ---------------------
 remark line goes here
 ---------------------
 Charge =  0 Multiplicity = 1

 SCF Done:  E(RHF) =  -874.648995248     A.U. after   14 cycles
 SCF Done:  E(RHF) =  -874.683265878     A.U. after   14 cycles
 SCF Done:  E(RHF) =  -874.690034419     A.U. after   13 cycles
 SCF Done:  E(RHF) =  -874.691775311     A.U. after   13 cycles
 SCF Done:  E(RHF) =  -874.691184536     A.U. after   13 cycles
 SCF Done:  E(RHF) =  -874.692757065     A.U. after   13 cycles
 SCF Done:  E(RHF) =  -874.693186083     A.U. after   13 cycles
 SCF Done:  E(RHF) =  -874.693344425     A.U. after   13 cycles
 SCF Done:  E(RHF) =  -874.693454769     A.U. after   12 cycles
 SCF Done:  E(RHF) =  -874.693490638     A.U. after   10 cycles
 SCF Done:  E(RHF) =  -874.703139163     A.U. after   15 cycles
 SCF Done:  E(RHF) =  -874.703339679     A.U. after   14 cycles
 SCF Done:  E(RHF) =  -874.703913036     A.U. after   14 cycles
 SCF Done:  E(RHF) =  -874.703899645     A.U. after   12 cycles
 SCF Done:  E(RHF) =  -874.703992613     A.U. after   11 cycles
 SCF Done:  E(RHF) =  -874.703999344     A.U. after   11 cycles
 SCF Done:  E(RHF) =  -874.704001670     A.U. after    9 cycles
 SCF Done:  E(RHF) =  -874.704002362     A.U. after    8 cycles
 SCF Done:  E(RHF) =  -874.704002682     A.U. after    8 cycles
 SCF Done:  E(RHF) =  -874.704002811     A.U. after    7 cycles
 Optimization completed.
    -- Stationary point found.

                         Standard orientation:
 ---------------------------------------------------------------------
 Center     Atomic      Atomic             Coordinates (Angstroms)
 Number     Number       Type             X           Y           Z
 ---------------------------------------------------------------------
      1          7           0       -1.625094    1.734527    0.625611
      2          6           0       -1.532278    0.332932    0.248154
      3          6           0       -0.269380   -0.000823   -0.583951
      4          6           0       -2.809112   -0.096808   -0.481633
      5          6           0       -4.122201    0.163315    0.274739
      6          6           0       -5.307751   -0.258060   -0.600136
      7          6           0       -4.175516   -0.551071    1.628303
      8          8           0       -0.271729   -1.327647   -0.985455
      9          8           0       -0.238656    0.700652   -1.781121
     10          7           0        0.898880    0.360779    0.189898
     11          6           0        2.178746   -0.043504   -0.339916
     12          6           0        2.536881   -1.467132    0.073314
     13          8           0        1.865940   -2.169891    0.762860
     14          6           0        3.297227    0.909091    0.102345
     15          8           0        3.369742    0.785300    1.503979
     16          6           0        3.050889    2.348965   -0.322249
     17          1           0       -0.760499    2.079782    0.992558
     18          1           0       -1.890535    2.306422   -0.152989
     19          1           0       -1.444787   -0.240951    1.167630
     20          1           0       -2.842793    0.420375   -1.437390
     21          1           0       -2.733942   -1.152250   -0.715753
     22          1           0       -4.205903    1.229113    0.462686
     23          1           0       -5.283297   -1.325495   -0.805437
     24          1           0       -6.252411   -0.037562   -0.111381
     25          1           0       -5.299943    0.260745   -1.554547
     26          1           0       -3.421232   -0.174709    2.309960
     27          1           0       -5.142071   -0.404569    2.101703
     28          1           0       -4.025383   -1.622466    1.512668
     29          1           0       -0.026999   -1.876045   -0.249917
     30          1           0       -0.134641    1.618783   -1.573670
     31          1           0        0.816916    0.082542    1.147120
     32          1           0        2.127342   -0.032681   -1.420968
     33          8           0        3.693365   -1.869116   -0.431523
     34          1           0        4.223664    0.560916   -0.342834
     35          1           0        4.095335    1.293245    1.839739
     36          1           0        3.882238    2.976758   -0.012264
     37          1           0        2.966692    2.426456   -1.401951
     38          1           0        2.145964    2.729774    0.131326
     39          1           0        3.855445   -2.761133   -0.138591
 ---------------------------------------------------------------------

 The electronic state is 1-A.
 Alpha  occ. eigenvalues --  -20.62685 -20.57487 -20.56589 -20.56462 -20.55577
 Alpha  occ. eigenvalues --  -15.55738 -15.53886 -11.39260 -11.35997 -11.29664
 Alpha  occ. eigenvalues --  -11.28005 -11.24853 -11.22602 -11.21059 -11.20218
 Alpha  occ. eigenvalues --  -11.19778 -11.19616  -1.49008  -1.43191  -1.38502
 Alpha  occ. eigenvalues --   -1.37975  -1.33979  -1.22078  -1.18595  -1.07161
 Alpha  occ. eigenvalues --   -1.05671  -0.99022  -0.96932  -0.91868  -0.88971
 Alpha  occ. eigenvalues --   -0.86050  -0.82818  -0.80811  -0.76113  -0.74560
 Alpha  occ. eigenvalues --   -0.72364  -0.70988  -0.70553  -0.68362  -0.67916
 Alpha  occ. eigenvalues --   -0.65949  -0.65323  -0.62902  -0.61395  -0.61211
 Alpha  occ. eigenvalues --   -0.60340  -0.59492  -0.58089  -0.57624  -0.56837
 Alpha  occ. eigenvalues --   -0.56045  -0.54255  -0.53840  -0.52504  -0.51792
 Alpha  occ. eigenvalues --   -0.50824  -0.50382  -0.49645  -0.48994  -0.48785
 Alpha  occ. eigenvalues --   -0.47438  -0.46403  -0.45096  -0.44804  -0.44452
 Alpha  occ. eigenvalues --   -0.43869  -0.39910  -0.37218
 Alpha virt. eigenvalues --    0.17885   0.20005   0.21480   0.22392   0.24136
 Alpha virt. eigenvalues --    0.24598   0.26656   0.27218   0.28986   0.29410
 Alpha virt. eigenvalues --    0.29940   0.30462   0.31169   0.31508   0.32463

 Mulliken atomic charges:
              1
     1  N   -0.857624
     2  C   -0.027923
     3  C    0.831834
     4  C   -0.321211
     5  C   -0.140359
     6  C   -0.475003
     7  C   -0.484307
     8  O   -0.774378
     9  O   -0.748836
    10  N   -0.787680
    11  C   -0.093712
    12  C    0.802448
    13  O   -0.600060
    14  C    0.168411
    15  O   -0.760207
    16  C   -0.500304
    17  H    0.354463
    18  H    0.330525
    19  H    0.160337
    20  H    0.168576
    21  H    0.185850
    22  H    0.171754
    23  H    0.153308
    24  H    0.156776
    25  H    0.155911
    26  H    0.171981
    27  H    0.156853
    28  H    0.147629
    29  H    0.473637
    30  H    0.441727
    31  H    0.377222
    32  H    0.251552
    33  O   -0.700456
    34  H    0.181556
    35  H    0.447173
    36  H    0.157149
    37  H    0.165425
    38  H    0.188332
    39  H    0.471630
 Sum of Mulliken atomic charges =   0.00000

 Dipole moment (field-independent basis, Debye):
    X=              4.1613    Y=              2.1189    Z=              0.4562  Tot=              4.6919
 Quadrupole moment (field-independent basis, Debye-Ang):
   XX=            -91.0931   YY=            -96.1713   ZZ=           -112.2753
   XY=              1.8190   XZ=              1.6254   YZ=             -2.4025

 Normal termination of Gaussian 09 at Tue Apr  1 17:09:39 2014.
