 Gaussian 09, Revision C.01,
 Gaussian 09:  EM64L-G09RevC.01 23-Sep-2011

 ----------------------------------------------------------------------
 #HF/6-31G* SCF=tight Test Pop=MK iop(6/33=2) iop(6/42=6) opt # iop(6/5
 0=1)
 ----------------------------------------------------------------------

 99/9=1/99;
 ---------------------
 remark line goes here
 ---------------------
 Charge =  0 Multiplicity = 1

 SCF Done:  E(RHF) =  -724.942498157     A.U. after   14 cycles
 SCF Done:  E(RHF) =  -724.965635432     A.U. after   14 cycles
 SCF Done:  E(RHF) =  -724.971263369     A.U. after   13 cycles
 SCF Done:  E(RHF) =  -724.973377882     A.U. after   14 cycles
 SCF Done:  E(RHF) =  -724.974195266     A.U. after   15 cycles
 SCF Done:  E(RHF) =  -724.973044662     A.U. after   13 cycles
 SCF Done:  E(RHF) =  -724.975144391     A.U. after   13 cycles
 SCF Done:  E(RHF) =  -724.975722141     A.U. after   13 cycles
 SCF Done:  E(RHF) =  -724.976258808     A.U. after   14 cycles
 SCF Done:  E(RHF) =  -724.976486079     A.U. after   12 cycles
 SCF Done:  E(RHF) =  -724.976630416     A.U. after   13 cycles
 SCF Done:  E(RHF) =  -724.976677315     A.U. after   13 cycles
 SCF Done:  E(RHF) =  -724.976715335     A.U. after   12 cycles
 SCF Done:  E(RHF) =  -724.976770146     A.U. after   13 cycles
 SCF Done:  E(RHF) =  -724.976811391     A.U. after   11 cycles
 SCF Done:  E(RHF) =  -724.976843621     A.U. after   12 cycles
 SCF Done:  E(RHF) =  -724.976852937     A.U. after   13 cycles
 SCF Done:  E(RHF) =  -724.976856011     A.U. after   10 cycles
 SCF Done:  E(RHF) =  -724.976856165     A.U. after    9 cycles
 SCF Done:  E(RHF) =  -724.976856204     A.U. after    7 cycles
 Optimization completed.
    -- Stationary point found.

                         Standard orientation:
 ---------------------------------------------------------------------
 Center     Atomic      Atomic             Coordinates (Angstroms)
 Number     Number       Type             X           Y           Z
 ---------------------------------------------------------------------
      1          7           0        0.566892    1.654143   -0.806994
      2          6           0        0.695485    0.204022   -0.653811
      3          6           0        1.905815   -0.234065    0.181189
      4          6           0        3.255847    0.205939   -0.389784
      5          6           0        4.440561   -0.308145    0.430101
      6          6           0        5.790358    0.136481   -0.123510
      7          7           0        6.875741   -0.413601    0.674285
      8          6           0       -0.614881   -0.328202   -0.051626
      9          8           0       -0.967264    0.407214    1.092298
     10          6           0       -1.760254   -0.316533   -1.070433
     11          6           0       -3.030419   -0.811830   -0.422536
     12          8           0       -3.235981   -1.953070   -0.155892
     13          8           0       -3.886558    0.164815   -0.169492
     14          6           0       -5.093418   -0.181823    0.501352
     15          6           0       -5.887365    1.092806    0.694710
     16          1           0        1.122934    1.993499   -1.565916
     17          1           0        0.884391    2.124305    0.019243
     18          1           0        0.797967   -0.215642   -1.651151
     19          1           0        1.788510    0.147441    1.193210
     20          1           0        1.895314   -1.318691    0.261416
     21          1           0        3.347043   -0.152058   -1.414801
     22          1           0        3.300492    1.291693   -0.440056
     23          1           0        4.344531    0.039543    1.458050
     24          1           0        4.426776   -1.393140    0.470100
     25          1           0        5.903335   -0.237580   -1.136605
     26          1           0        5.814247    1.227396   -0.188222
     27          1           0        7.764517   -0.181655    0.274759
     28          1           0        6.863747   -0.028391    1.599588
     29          1           0       -0.473609   -1.344721    0.290830
     30          1           0       -1.196323    1.286183    0.815588
     31          1           0       -1.525959   -0.988352   -1.888401
     32          1           0       -1.898352    0.682356   -1.462725
     33          1           0       -4.847807   -0.647859    1.445442
     34          1           0       -5.634024   -0.902841   -0.096521
     35          1           0       -6.820570    0.873459    1.203429
     36          1           0       -5.330487    1.805386    1.292572
     37          1           0       -6.117050    1.552308   -0.260085
 ---------------------------------------------------------------------

 The electronic state is 1-A.
 Alpha  occ. eigenvalues --  -20.59692 -20.55683 -20.53488 -15.55079 -15.53697
 Alpha  occ. eigenvalues --  -11.36524 -11.27891 -11.27886 -11.25766 -11.24564
 Alpha  occ. eigenvalues --  -11.22610 -11.22361 -11.21915 -11.21816 -11.21659
 Alpha  occ. eigenvalues --   -1.46182  -1.36965  -1.35456  -1.19699  -1.18159
 Alpha  occ. eigenvalues --   -1.07222  -1.06122  -1.02869  -0.98921  -0.92594
 Alpha  occ. eigenvalues --   -0.87143  -0.83916  -0.80467  -0.79812  -0.77285
 Alpha  occ. eigenvalues --   -0.70605  -0.68854  -0.68197  -0.67094  -0.66707
 Alpha  occ. eigenvalues --   -0.64771  -0.64006  -0.63892  -0.61759  -0.60223
 Alpha  occ. eigenvalues --   -0.58388  -0.58091  -0.56775  -0.55707  -0.55188
 Alpha  occ. eigenvalues --   -0.53483  -0.53128  -0.52099  -0.50414  -0.50149
 Alpha  occ. eigenvalues --   -0.49811  -0.48482  -0.47695  -0.47143  -0.46230
 Alpha  occ. eigenvalues --   -0.44975  -0.44037  -0.42531  -0.39089  -0.38397
 Alpha virt. eigenvalues --    0.19589   0.21237   0.22482   0.24371   0.24829
 Alpha virt. eigenvalues --    0.25310   0.26166   0.27797   0.28198   0.29206
 Alpha virt. eigenvalues --    0.30201   0.30681   0.31226   0.31408   0.31611

 Mulliken atomic charges:
              1
     1  N   -0.876780
     2  C    0.000733
     3  C   -0.325555
     4  C   -0.317962
     5  C   -0.302740
     6  C   -0.119731
     7  N   -0.843385
     8  C    0.175709
     9  O   -0.768712
    10  C   -0.439207
    11  C    0.804954
    12  O   -0.583552
    13  O   -0.621296
    14  C   -0.005881
    15  C   -0.497187
    16  H    0.351191
    17  H    0.343344
    18  H    0.163827
    19  H    0.175629
    20  H    0.165077
    21  H    0.152522
    22  H    0.143878
    23  H    0.148710
    24  H    0.178338
    25  H    0.158666
    26  H    0.129200
    27  H    0.336517
    28  H    0.330705
    29  H    0.199935
    30  H    0.452841
    31  H    0.195511
    32  H    0.215389
    33  H    0.184777
    34  H    0.178272
    35  H    0.166316
    36  H    0.175532
    37  H    0.174415
 Sum of Mulliken atomic charges =   0.00000

 Dipole moment (field-independent basis, Debye):
    X=              1.8813    Y=              3.9322    Z=             -1.3517  Tot=              4.5638
 Quadrupole moment (field-independent basis, Debye-Ang):
   XX=            -80.5795   YY=            -99.8112   ZZ=            -91.6203
   XY=              4.4354   XZ=             -2.1427   YZ=              3.1408

 Normal termination of Gaussian 09 at Tue Apr  1 15:59:49 2014.
