 Gaussian 09, Revision C.01,
 Gaussian 09:  EM64L-G09RevC.01 23-Sep-2011

 ----------------------------------------------------------------------
 #HF/6-31G* SCF=tight Test Pop=MK iop(6/33=2) iop(6/42=6) opt # iop(6/5
 0=1)
 ----------------------------------------------------------------------

 99/9=1/99;
 ---------------------
 remark line goes here
 ---------------------
 Charge =  0 Multiplicity = 1

 SCF Done:  E(RHF) =  -650.065692900     A.U. after   14 cycles
 SCF Done:  E(RHF) =  -650.087226097     A.U. after   13 cycles
 SCF Done:  E(RHF) =  -650.089999447     A.U. after   12 cycles
 SCF Done:  E(RHF) =  -650.090304034     A.U. after   13 cycles
 SCF Done:  E(RHF) =  -650.091136702     A.U. after   13 cycles
 SCF Done:  E(RHF) =  -650.091416792     A.U. after   11 cycles
 SCF Done:  E(RHF) =  -650.091484373     A.U. after   11 cycles
 SCF Done:  E(RHF) =  -650.091495283     A.U. after   11 cycles
 SCF Done:  E(RHF) =  -650.091500220     A.U. after   11 cycles
 SCF Done:  E(RHF) =  -650.091501138     A.U. after    9 cycles
 SCF Done:  E(RHF) =  -650.091501257     A.U. after    8 cycles
 SCF Done:  E(RHF) =  -650.091501311     A.U. after    8 cycles
 Optimization completed.
    -- Stationary point found.

                         Standard orientation:
 ---------------------------------------------------------------------
 Center     Atomic      Atomic             Coordinates (Angstroms)
 Number     Number       Type             X           Y           Z
 ---------------------------------------------------------------------
      1          8           0       -2.752069   -2.180701   -0.985636
      2          7           0       -2.521039    1.098655    0.436228
      3          6           0       -2.241289    0.074340   -0.552329
      4          6           0       -0.785386    0.085847   -1.073609
      5          6           0        0.294030   -0.037116    0.005762
      6          6           0        1.704268    0.012093   -0.588263
      7          6           0        2.782434   -0.109753    0.487663
      8          7           0        4.127901   -0.244023   -0.045247
      9          6           0        4.616682    0.962552   -0.677447
     10          6           0        5.054394   -0.710209    0.963984
     11          6           0       -2.501684   -1.319752    0.001816
     12          8           0       -2.458132   -1.662893    1.136501
     13          6           0       -2.174376    2.432445   -0.016162
     14          6           0       -3.902835    1.073331    0.884692
     15          1           0       -2.893065    0.180566   -1.423687
     16          1           0       -0.689909   -0.732004   -1.780997
     17          1           0       -0.631403    0.990635   -1.650828
     18          1           0        0.172211    0.753968    0.738005
     19          1           0        0.162558   -0.967545    0.549958
     20          1           0        1.839825   -0.796322   -1.301879
     21          1           0        1.822472    0.940115   -1.141185
     22          1           0        2.710311    0.737854    1.178984
     23          1           0        2.575475   -1.000493    1.071631
     24          1           0        4.669057    1.811671    0.012003
     25          1           0        5.612078    0.787877   -1.069414
     26          1           0        3.985074    1.242775   -1.509921
     27          1           0        4.716591   -1.657987    1.366813
     28          1           0        6.031245   -0.866564    0.520390
     29          1           0        5.170437   -0.009444    1.796868
     30          1           0       -2.690457    2.718986   -0.937640
     31          1           0       -2.448112    3.143729    0.752796
     32          1           0       -1.110590    2.528905   -0.178808
     33          1           0       -4.143138    0.117945    1.325175
     34          1           0       -4.042467    1.828246    1.648462
     35          1           0       -4.610100    1.277240    0.074610
     36          1           0       -2.851954   -3.046480   -0.601767
 ---------------------------------------------------------------------

 The electronic state is 1-A.
 Alpha  occ. eigenvalues --  -20.61474 -20.55145 -15.55561 -15.54181 -11.37973
 Alpha  occ. eigenvalues --  -11.27249 -11.24387 -11.23882 -11.23738 -11.23454
 Alpha  occ. eigenvalues --  -11.23432 -11.23000 -11.21430 -11.21258  -1.47668
 Alpha  occ. eigenvalues --   -1.36669  -1.23988  -1.22484  -1.08449  -1.02960
 Alpha  occ. eigenvalues --   -0.96661  -0.95026  -0.94715  -0.88019  -0.86798
 Alpha  occ. eigenvalues --   -0.81917  -0.78442  -0.76703  -0.70366  -0.69777
 Alpha  occ. eigenvalues --   -0.66719  -0.65211  -0.64936  -0.63593  -0.62314
 Alpha  occ. eigenvalues --   -0.61660  -0.60989  -0.60321  -0.57644  -0.56095
 Alpha  occ. eigenvalues --   -0.54999  -0.54255  -0.53869  -0.53090  -0.52158
 Alpha  occ. eigenvalues --   -0.51510  -0.51012  -0.50226  -0.49484  -0.47804
 Alpha  occ. eigenvalues --   -0.46978  -0.46360  -0.45136  -0.43354  -0.35782
 Alpha  occ. eigenvalues --   -0.34520
 Alpha virt. eigenvalues --    0.18789   0.21844   0.22887   0.23504   0.25374
 Alpha virt. eigenvalues --    0.26824   0.27721   0.28940   0.29550   0.30019
 Alpha virt. eigenvalues --    0.30841   0.30966   0.31715   0.32200   0.32538

 Mulliken atomic charges:
              1
     1  O   -0.708482
     2  N   -0.549426
     3  C   -0.021678
     4  C   -0.364597
     5  C   -0.321414
     6  C   -0.315431
     7  C   -0.100696
     8  N   -0.554299
     9  C   -0.289961
    10  C   -0.284642
    11  C    0.752259
    12  O   -0.552312
    13  C   -0.293847
    14  C   -0.312248
    15  H    0.179495
    16  H    0.192763
    17  H    0.178773
    18  H    0.183112
    19  H    0.178678
    20  H    0.169904
    21  H    0.151383
    22  H    0.131611
    23  H    0.163995
    24  H    0.129606
    25  H    0.166645
    26  H    0.169954
    27  H    0.167724
    28  H    0.165693
    29  H    0.130811
    30  H    0.134503
    31  H    0.175761
    32  H    0.174332
    33  H    0.202837
    34  H    0.173956
    35  H    0.129908
    36  H    0.465327
 Sum of Mulliken atomic charges =   0.00000

 Dipole moment (field-independent basis, Debye):
    X=             -0.2733    Y=              1.0361    Z=             -1.4772  Tot=              1.8249
 Quadrupole moment (field-independent basis, Debye-Ang):
   XX=            -84.2999   YY=            -82.1847   ZZ=            -94.3617
   XY=              1.0237   XZ=              5.0460   YZ=              1.0320

 Normal termination of Gaussian 09 at Tue Apr  1 14:01:02 2014.
