 Gaussian 09, Revision C.01,
 Gaussian 09:  EM64L-G09RevC.01 23-Sep-2011

 ----------------------------------------------------------------------
 #HF/6-31G* SCF=tight Test Pop=MK iop(6/33=2) iop(6/42=6) opt # iop(6/5
 0=1)
 ----------------------------------------------------------------------

 99/9=1/99;
 ---------------------
 remark line goes here
 ---------------------
 Charge =  0 Multiplicity = 1

 SCF Done:  E(RHF) =  -1126.33256174     A.U. after   17 cycles
 SCF Done:  E(RHF) =  -1126.37152437     A.U. after   17 cycles
 SCF Done:  E(RHF) =  -1126.38139155     A.U. after   16 cycles
 SCF Done:  E(RHF) =  -1126.38715642     A.U. after   15 cycles
 SCF Done:  E(RHF) =  -1126.36976963     A.U. after   16 cycles
 SCF Done:  E(RHF) =  -1126.39607426     A.U. after   16 cycles
 SCF Done:  E(RHF) =  -1126.39832436     A.U. after   14 cycles
 SCF Done:  E(RHF) =  -1126.39945444     A.U. after   14 cycles
 SCF Done:  E(RHF) =  -1126.39977479     A.U. after   15 cycles
 SCF Done:  E(RHF) =  -1126.40107983     A.U. after   14 cycles
 SCF Done:  E(RHF) =  -1126.40390420     A.U. after   13 cycles
 SCF Done:  E(RHF) =  -1126.40483519     A.U. after   13 cycles
 SCF Done:  E(RHF) =  -1126.40489765     A.U. after   13 cycles
 SCF Done:  E(RHF) =  -1126.40491509     A.U. after   12 cycles
 SCF Done:  E(RHF) =  -1126.40492209     A.U. after   12 cycles
 SCF Done:  E(RHF) =  -1126.40492377     A.U. after   10 cycles
 SCF Done:  E(RHF) =  -1126.40492484     A.U. after    9 cycles
 SCF Done:  E(RHF) =  -1126.40492554     A.U. after    9 cycles
 SCF Done:  E(RHF) =  -1126.40492607     A.U. after    9 cycles
 SCF Done:  E(RHF) =  -1126.40492623     A.U. after    8 cycles
 Optimization completed.
    -- Stationary point found.

                         Standard orientation:
 ---------------------------------------------------------------------
 Center     Atomic      Atomic             Coordinates (Angstroms)
 Number     Number       Type             X           Y           Z
 ---------------------------------------------------------------------
      1          7           0        5.016861    1.000057   -1.311789
      2          6           0        5.004592    0.289361   -0.290276
      3          7           0        6.100147   -0.168745    0.498164
      4          7           0        7.397859    0.145158    0.306919
      5          8           0        7.663869    1.114003   -0.331726
      6          8           0        8.175608   -0.584320    0.840637
      7          7           0        3.857511   -0.255080    0.250000
      8          6           0        2.585478    0.073361   -0.379730
      9          6           0        1.460803   -0.719642    0.277355
     10          6           0        0.103527   -0.420626   -0.361393
     11          6           0       -1.068824   -1.168770    0.301411
     12          7           0       -1.047712   -2.614948    0.193094
     13          6           0       -2.363878   -0.703984   -0.355498
     14          8           0       -2.649381   -1.068735   -1.468415
     15          7           0       -3.128115    0.135671    0.365245
     16          6           0       -4.312424    0.774116   -0.159955
     17          6           0       -4.295204    2.227101    0.308367
     18          8           0       -3.734242    2.553830    1.318877
     19          7           0       -4.986988    3.096476   -0.455868
     20          6           0       -5.612924    0.102133    0.316143
     21          6           0       -5.758718   -1.345341   -0.145461
     22          7           0       -7.015928   -1.887103    0.350020
     23          1           0        5.933952    1.257179   -1.611122
     24          1           0        6.022263   -1.068330    0.921004
     25          1           0        3.832437   -0.199393    1.247827
     26          1           0        2.663195   -0.178984   -1.427436
     27          1           0        2.387505    1.140207   -0.325171
     28          1           0        1.419063   -0.482019    1.340288
     29          1           0        1.695019   -1.776978    0.199985
     30          1           0        0.122378   -0.677250   -1.416461
     31          1           0       -0.086949    0.649444   -0.301815
     32          1           0       -1.088891   -0.918199    1.357956
     33          1           0       -1.155505   -2.886900   -0.764884
     34          1           0       -0.193657   -3.000932    0.541996
     35          1           0       -2.813223    0.466226    1.250049
     36          1           0       -4.254290    0.730314   -1.239451
     37          1           0       -5.354991    2.849251   -1.344439
     38          1           0       -5.002448    4.054538   -0.186125
     39          1           0       -6.457995    0.681516   -0.050653
     40          1           0       -5.658041    0.133979    1.399574
     41          1           0       -4.954987   -1.940017    0.268674
     42          1           0       -5.659658   -1.397955   -1.229804
     43          1           0       -7.794258   -1.484840   -0.136808
     44          1           0       -7.057766   -2.875726    0.195546
 ---------------------------------------------------------------------

 The electronic state is 1-A.
 Alpha  occ. eigenvalues --  -20.62273 -20.61885 -20.53984 -20.52624 -15.91648
 Alpha  occ. eigenvalues --  -15.67613 -15.59895 -15.59735 -15.58934 -15.54572
 Alpha  occ. eigenvalues --  -15.54559 -15.53741 -11.37936 -11.36327 -11.34860
 Alpha  occ. eigenvalues --  -11.28508 -11.27183 -11.26835 -11.24434 -11.24152
 Alpha  occ. eigenvalues --  -11.23525 -11.23038  -1.68033  -1.45176  -1.40979
 Alpha  occ. eigenvalues --   -1.39467  -1.35964  -1.26577  -1.24592  -1.23039
 Alpha  occ. eigenvalues --   -1.19957  -1.19182  -1.18149  -1.07939  -1.05796
 Alpha  occ. eigenvalues --   -1.00407  -0.96373  -0.93986  -0.88706  -0.84193
 Alpha  occ. eigenvalues --   -0.83257  -0.82842  -0.80777  -0.80482  -0.79550
 Alpha  occ. eigenvalues --   -0.78735  -0.77814  -0.75201  -0.72800  -0.72133
 Alpha  occ. eigenvalues --   -0.68711  -0.68129  -0.67547  -0.67038  -0.66320
 Alpha  occ. eigenvalues --   -0.64378  -0.63620  -0.63196  -0.61749  -0.60729
 Alpha  occ. eigenvalues --   -0.60203  -0.58813  -0.57891  -0.57492  -0.56838
 Alpha  occ. eigenvalues --   -0.55017  -0.54091  -0.53070  -0.51813  -0.51446
 Alpha  occ. eigenvalues --   -0.51179  -0.50873  -0.50479  -0.49522  -0.49116
 Alpha  occ. eigenvalues --   -0.48201  -0.45041  -0.44618  -0.43622  -0.42695
 Alpha  occ. eigenvalues --   -0.42332  -0.39196  -0.38950  -0.38769  -0.38575
 Alpha virt. eigenvalues --    0.10735   0.18771   0.20123   0.20259   0.20555
 Alpha virt. eigenvalues --    0.20785   0.21624   0.22843   0.24063   0.24273
 Alpha virt. eigenvalues --    0.25831   0.26074   0.27766   0.28146   0.28856

 Mulliken atomic charges:
              1
     1  N   -0.716035
     2  C    0.837863
     3  N   -0.659178
     4  N    0.831737
     5  O   -0.485424
     6  O   -0.482466
     7  N   -0.822861
     8  C   -0.077870
     9  C   -0.337968
    10  C   -0.337687
    11  C   -0.074776
    12  N   -0.846141
    13  C    0.814534
    14  O   -0.647138
    15  N   -0.818312
    16  C   -0.074065
    17  C    0.769661
    18  O   -0.616708
    19  N   -0.920849
    20  C   -0.303714
    21  C   -0.133057
    22  N   -0.847184
    23  H    0.384557
    24  H    0.432071
    25  H    0.373924
    26  H    0.205262
    27  H    0.179812
    28  H    0.152923
    29  H    0.168407
    30  H    0.190994
    31  H    0.172314
    32  H    0.176687
    33  H    0.363607
    34  H    0.344356
    35  H    0.416932
    36  H    0.223887
    37  H    0.395001
    38  H    0.402134
    39  H    0.155820
    40  H    0.197898
    41  H    0.186776
    42  H    0.153937
    43  H    0.328390
    44  H    0.341949
 Sum of Mulliken atomic charges =   0.00000

 Dipole moment (field-independent basis, Debye):
    X=             -4.0373    Y=             -0.1827    Z=             -0.4699  Tot=              4.0686
 Quadrupole moment (field-independent basis, Debye-Ang):
   XX=           -155.4488   YY=           -128.3708   ZZ=           -136.7960
   XY=            -22.1961   XZ=             23.8684   YZ=             -5.6187

 Normal termination of Gaussian 09 at Tue Apr  1 15:36:56 2014.
