 Gaussian 09, Revision C.01,
 Gaussian 09:  EM64L-G09RevC.01 23-Sep-2011

 ----------------------------------------------------------------------
 #HF/6-31G* SCF=tight Test Pop=MK iop(6/33=2) iop(6/42=6) opt # iop(6/5
 0=1)
 ----------------------------------------------------------------------

 99/9=1/99;
 ---------------------
 remark line goes here
 ---------------------
 Charge =  0 Multiplicity = 1

 SCF Done:  E(RHF) =  -650.012218825     A.U. after   13 cycles
 SCF Done:  E(RHF) =  -650.033621476     A.U. after   12 cycles
 SCF Done:  E(RHF) =  -650.040706097     A.U. after   12 cycles
 SCF Done:  E(RHF) =  -650.046259857     A.U. after   13 cycles
 SCF Done:  E(RHF) =  -650.051770748     A.U. after   13 cycles
 SCF Done:  E(RHF) =  -650.054822922     A.U. after   12 cycles
 SCF Done:  E(RHF) =  -650.058643835     A.U. after   13 cycles
 SCF Done:  E(RHF) =  -650.060380808     A.U. after   11 cycles
 SCF Done:  E(RHF) =  -650.061492660     A.U. after   11 cycles
 SCF Done:  E(RHF) =  -650.061674939     A.U. after   11 cycles
 SCF Done:  E(RHF) =  -650.061770620     A.U. after   10 cycles
 SCF Done:  E(RHF) =  -650.061836156     A.U. after   10 cycles
 SCF Done:  E(RHF) =  -650.061839072     A.U. after    8 cycles
 SCF Done:  E(RHF) =  -650.061839527     A.U. after    8 cycles
 SCF Done:  E(RHF) =  -650.061839664     A.U. after    8 cycles
 SCF Done:  E(RHF) =  -650.061839685     A.U. after    7 cycles
 Optimization completed.
    -- Stationary point found.

                         Standard orientation:
 ---------------------------------------------------------------------
 Center     Atomic      Atomic             Coordinates (Angstroms)
 Number     Number       Type             X           Y           Z
 ---------------------------------------------------------------------
      1          6           0       -5.215545   -0.263994    0.321752
      2          6           0       -4.610626    1.108790    0.309278
      3          6           0       -4.033972    0.026230   -0.544311
      4          7           0        0.743496    1.763522   -0.055491
      5          6           0        0.928432    0.357131   -0.383464
      6          6           0       -0.356870   -0.398779   -0.007519
      7          6           0       -1.612840    0.175501   -0.671960
      8          7           0       -2.772833   -0.530852   -0.157665
      9          8           0       -0.250432   -1.762617   -0.360772
     10          8           0       -0.489387   -0.345636    1.362753
     11          6           0        2.171349   -0.294444    0.245562
     12          6           0        3.492791    0.305707   -0.242128
     13          6           0        4.716864   -0.398819    0.347149
     14          6           0        6.039418    0.199554   -0.130722
     15          1           0       -6.172050   -0.407707   -0.149216
     16          1           0       -5.046490   -0.874159    1.190670
     17          1           0       -4.039655    1.408455    1.169582
     18          1           0       -5.153954    1.904181   -0.169625
     19          1           0       -4.221967    0.104318   -1.607287
     20          1           0        0.675186    1.871133    0.938887
     21          1           0        1.519846    2.311312   -0.368586
     22          1           0        1.022048    0.298611   -1.467648
     23          1           0       -1.516883    0.100997   -1.758716
     24          1           0       -1.701596    1.221674   -0.425674
     25          1           0       -2.724940   -1.498355   -0.410909
     26          1           0       -0.079781   -1.837864   -1.290425
     27          1           0       -1.389899   -0.576150    1.568795
     28          1           0        2.163058   -1.356654    0.027490
     29          1           0        2.101802   -0.203548    1.325415
     30          1           0        3.544615    1.362251    0.012960
     31          1           0        3.540418    0.251168   -1.329743
     32          1           0        4.683175   -1.454540    0.087767
     33          1           0        4.669648   -0.350948    1.432711
     34          1           0        6.886919   -0.321977    0.303286
     35          1           0        6.131091    0.136738   -1.211568
     36          1           0        6.119322    1.247131    0.146256
 ---------------------------------------------------------------------

 The electronic state is 1-A.
 Alpha  occ. eigenvalues --  -20.55989 -20.55132 -15.54977 -15.53364 -11.32644
 Alpha  occ. eigenvalues --  -11.25327 -11.24958 -11.23850 -11.21964 -11.21846
 Alpha  occ. eigenvalues --  -11.21468 -11.21403 -11.20830 -11.20421  -1.41423
 Alpha  occ. eigenvalues --   -1.33101  -1.22549  -1.18565  -1.11333  -1.07146
 Alpha  occ. eigenvalues --   -1.00326  -0.97088  -0.90941  -0.84251  -0.82432
 Alpha  occ. eigenvalues --   -0.79897  -0.79358  -0.78643  -0.72396  -0.69249
 Alpha  occ. eigenvalues --   -0.67914  -0.65374  -0.64615  -0.64032  -0.62636
 Alpha  occ. eigenvalues --   -0.61556  -0.59249  -0.58271  -0.57232  -0.56646
 Alpha  occ. eigenvalues --   -0.53841  -0.53169  -0.52649  -0.51446  -0.51309
 Alpha  occ. eigenvalues --   -0.50219  -0.48444  -0.47355  -0.46678  -0.46050
 Alpha  occ. eigenvalues --   -0.45483  -0.44390  -0.42801  -0.40691  -0.37475
 Alpha  occ. eigenvalues --   -0.37068
 Alpha virt. eigenvalues --    0.20913   0.23022   0.24335   0.24944   0.25920
 Alpha virt. eigenvalues --    0.27149   0.28002   0.28290   0.28991   0.30349
 Alpha virt. eigenvalues --    0.30574   0.31089   0.31992   0.32397   0.33795

 Mulliken atomic charges:
              1
     1  C   -0.373753
     2  C   -0.360944
     3  C    0.034373
     4  N   -0.860376
     5  C   -0.015413
     6  C    0.633670
     7  C   -0.118661
     8  N   -0.771256
     9  O   -0.776976
    10  O   -0.773719
    11  C   -0.315274
    12  C   -0.310597
    13  C   -0.300263
    14  C   -0.478788
    15  H    0.179541
    16  H    0.189983
    17  H    0.190982
    18  H    0.179909
    19  H    0.167385
    20  H    0.353420
    21  H    0.346308
    22  H    0.143451
    23  H    0.122737
    24  H    0.217389
    25  H    0.361428
    26  H    0.433461
    27  H    0.472893
    28  H    0.176651
    29  H    0.179780
    30  H    0.140854
    31  H    0.145752
    32  H    0.156057
    33  H    0.157926
    34  H    0.162356
    35  H    0.154713
    36  H    0.155003
 Sum of Mulliken atomic charges =   0.00000

 Dipole moment (field-independent basis, Debye):
    X=             -0.1677    Y=              0.3609    Z=             -2.2104  Tot=              2.2459
 Quadrupole moment (field-independent basis, Debye-Ang):
   XX=            -82.7801   YY=            -90.2553   ZZ=            -85.5145
   XY=              2.8628   XZ=              1.5217   YZ=              4.6526

 Normal termination of Gaussian 09 at Tue Apr  1 15:53:35 2014.
